% Model:              WindingSectionV2_Paper_P1_BiPolar.mph
% Version:            COMSOL 5.2.1.262
% Date:               Jul 4 2017, 17:28
% Table:              Table 3 - Global Evaluation 1 (mf.Forcez_MagneticMoverForce, fsens(Offset_Mover))
% offset (m)             Electromagnetic force, z component (N)fsens(Offset_Mover)
0                        51.545468022171164       50.373637669223825
9.083333333333334E-5     45.85674013575614        45.92856687548334
1.8166666666666667E-4    40.39467032040103        40.848615222571205
2.725E-4                 35.21615961771467        35.75785437127907
3.6333333333333335E-4    29.584794254492273       30.439511045782314
4.541666666666667E-4     23.952699022584245       25.29080089892487
5.45E-4                  19.07617291340536        20.158570868138316
6.358333333333333E-4     14.272415892583378       15.099619864149581
7.266666666666667E-4     9.504502658086848        10.2523836554677
8.175000000000001E-4     4.751556243574087        5.352099362129195
9.083333333333334E-4     0.4646221357554939       0.6589051566209801
9.991666666666666E-4     -5.037503341641942       -4.103981448661805
0.00109                  -9.215687299457864       -8.51635015040844
0.0011808333333333334    -14.228739347855512      -13.554639698812132
0.0012716666666666666    -18.289608900065467      -18.448219599290002
0.0013625                -24.218747001858407      -23.40491580702267
0.0014533333333333334    -29.233817641485565      -28.128433717979163
0.0015441666666666668    -33.67209787589918       -32.41076475722246
0.0016350000000000002    -37.208541700895914      -35.61423217247081
0.0017258333333333333    -37.72887974694411       -36.90449875571977
