% Model:              WindingSectionV2_Paper_P1_BiPolar.mph
% Version:            COMSOL 5.2.1.262
% Date:               Jul 4 2017, 17:57
% Table:              Table 1 - Global Evaluation 1 (mf.Forcez_MagneticMoverForce, fsens(Offset_Mover))
% offset (m)             Electromagnetic force, z component (N)fsens(Offset_Mover)
0                        -50.46835183399601       -50.31796409428791
9.083333333333334E-5     -54.89213489475618       -53.92273069678033
1.8166666666666667E-4    -57.18054579627114       -56.41804903023838
2.725E-4                 -58.205180305106         -57.357163357566904
3.6333333333333335E-4    -57.70520745921737       -57.45073483100196
4.541666666666667E-4     -56.806245374484476      -55.93901153044877
5.45E-4                  -54.12587901573635       -53.67941668218884
6.358333333333333E-4     -50.76400228428344       -51.00833917207849
7.266666666666667E-4     -48.756160816394114      -48.00131481557471
8.175000000000001E-4     -44.37519515034902       -44.8001337012152
9.083333333333334E-4     -40.88007833826216       -41.393722484647625
9.991666666666666E-4     -37.3955153858312        -37.82062808459731
0.00109                  -33.16049773558649       -34.153659966486465
0.0011808333333333334    -29.673877442616565      -30.31574090081094
0.0012716666666666666    -24.82750805254932       -26.118549400834237
0.0013625                -20.88943182296652       -21.860672765478853
0.0014533333333333334    -16.593230567825266      -17.5643264611583
0.0015441666666666668    -12.304800584719938      -13.205591047191197
0.0016350000000000002    -8.183877497334118       -8.791467930078518
0.0017258333333333333    -3.359301880896367       -4.086104709590749
