% Model:              WindingSectionV2_Paper_P1_UniPolar.mph
% Version:            COMSOL 5.2.1.262
% Date:               Jul 4 2017, 12:43
% Table:              Table 3 - Global Evaluation 1 (mf.Forcez_MagneticMoverForce, fsens(Offset_Mover))
% offset (m)             Electromagnetic force, z component (N)fsens(Offset_Mover)
0                        0.3909143897056807       -0.007992948769268622
9.083333333333334E-5     -5.800891550116702       -5.503498592703252
1.8166666666666667E-4    -11.098088866707066      -10.686650627840125
2.725E-4                 -15.598949603903511      -15.34050751474258
3.6333333333333335E-4    -19.797330862645488      -19.464380165376614
4.541666666666667E-4     -23.22452260398454       -22.986911442051
5.45E-4                  -26.448189840103137      -26.153316951390458
6.358333333333333E-4     -29.19767658923776       -28.998295003300896
7.266666666666667E-4     -31.81398175656571       -31.59428937574171
8.175000000000001E-4     -34.30403949289207       -33.994717825637274
9.083333333333334E-4     -36.12362935171739       -36.24973512837497
9.991666666666666E-4     -38.877027156626795      -38.38161244845008
0.00109                  -40.51748106119384       -40.3669241530826
0.0011808333333333334    -42.422931232295966      -42.20651002354591
0.0012716666666666666    -43.593641936571785      -43.837979950331096
0.0013625                -45.34448985154525       -45.28039551859303
0.0014533333333333334    -46.86960504289798       -46.3701763125317
0.0015441666666666668    -47.15092691644005       -47.04212655542438
0.0016350000000000002    -47.54042220353473       -47.118571224118355
0.0017258333333333333    -46.47905772620064       -46.47740496231002
