% Model:              WindingSectionV2_Paper_P1_BiPolar.mph
% Version:            COMSOL 5.2.1.262
% Date:               Jul 4 2017, 17:02
% Table:              Table 1 - Global Evaluation 1 (mf.Forcez_MagneticMoverForce, fsens(Offset_Mover))
% offset (m)             Electromagnetic force, z component (N)fsens(Offset_Mover)
0                        0.2569989396544559       0.1136952189193352
9.083333333333334E-5     3.901281605713097        4.516049933036468
1.8166666666666667E-4    8.080142315353488        8.873171528624237
2.725E-4                 12.184992149892391       13.358261611014218
3.6333333333333335E-4    16.432100368863008       17.713692390360922
4.541666666666667E-4     19.71919152629486        22.046872191275607
5.45E-4                  24.782780379176          26.314017887654607
6.358333333333333E-4     29.78146129744181        30.479549967860866
7.266666666666667E-4     32.8510379096682         34.43751447086294
8.175000000000001E-4     37.812712153610676       38.151386577748475
9.083333333333334E-4     40.87158388924004        41.85535113796401
9.991666666666666E-4     45.022742534708875       45.35871105191867
0.00109                  48.663384979123954       49.03308486558756
0.0011808333333333334    51.505319277293076       52.05462351483299
0.0012716666666666666    54.54281885696817        54.869169748645994
0.0013625                56.526770588255154       57.3166895873251
0.0014533333333333334    59.03991679023218        59.2776551040159
0.0015441666666666668    59.431331025389454       60.39537613110419
0.0016350000000000002    60.74183949194449        61.442414265215284
0.0017258333333333333    62.52299754278356        62.91221957967471
