% Model:              WindingSectionV2_Paper_P1_UniPolar.mph
% Version:            COMSOL 5.2.1.262
% Date:               Jul 4 2017, 12:20
% Table:              Table 1 - Global Evaluation 1 (mf.Forcez_MagneticMoverForce, fsens(Offset_Mover))
% offset (m)             Electromagnetic force, z component (N)fsens(Offset_Mover)
0                        46.136901926063274       45.28535529296738
9.083333333333334E-5     47.120828039994294       46.745732315726805
1.8166666666666667E-4    47.40197671437726        47.3903086642505
2.725E-4                 47.401523720399254       47.33260928477458
3.6333333333333335E-4    46.40938835717533        46.64362168810624
4.541666666666667E-4     44.90310842049056        45.52898479406774
5.45E-4                  43.780757001213395       44.09271240110503
6.358333333333333E-4     42.28076985588042        42.43476595341784
7.266666666666667E-4     40.6244791132309         40.58071687629281
8.175000000000001E-4     38.67175238001634        38.56432022974569
9.083333333333334E-4     36.67782377717364        36.51082958821273
9.991666666666666E-4     34.348548603746856       34.254558479588965
0.00109                  32.06730509567238        32.168398948443276
0.0011808333333333334    29.51205837968263        29.531081984023672
0.0012716666666666666    26.935559599826085       26.772883853185977
0.0013625                23.485005836070023       23.794496576079574
0.0014533333333333334    20.44917190063011        20.664759632829472
0.0015441666666666668    16.688062304145532       17.438683058535034
0.0016350000000000002    13.614264622057249       14.387171952389028
0.0017258333333333333    11.240672383567286       11.95259725578272
