% Model:              WindingSectionV2_Paper_P1_UniPolar.mph
% Version:            COMSOL 5.2.1.262
% Date:               Jul 4 2017, 13:05
% Table:              Table 3 - Global Evaluation 1 (mf.Forcez_MagneticMoverForce, fsens(Offset_Mover))
% offset (m)             Electromagnetic force, z component (N)fsens(Offset_Mover)
0                        -45.685487961663036      -45.04321653847856
9.083333333333334E-5     -43.53824645768961       -42.75493773350137
1.8166666666666667E-4    -40.16444723727505       -39.642615605439424
2.725E-4                 -36.51800952812399       -35.81300023156026
3.6333333333333335E-4    -31.812222991168152      -31.369245612529458
4.541666666666667E-4     -27.558203458393173      -26.505713391179953
5.45E-4                  -21.900869149642304      -21.432913409147382
6.358333333333333E-4     -16.08384024917208       -16.133064874443953
7.266666666666667E-4     -11.618326935860336      -10.757536707290837
8.175000000000001E-4     -5.185973450805346       -5.356892419460192
9.083333333333334E-4     -0.20607723107528939     -0.0018843087925413682
9.991666666666666E-4     5.703774190812536        5.363333460924385
0.00109                  11.360502930533317       10.742698167621384
0.0011808333333333334    16.44559662589908        16.11509218362183
0.0012716666666666666    21.75136774469687        21.424465145039626
0.0013625                27.051466804047596       26.515044137455508
0.0014533333333333334    32.29455456442257        31.36910547961985
0.0015441666666666668    36.254025079821496       35.80371438407232
0.0016350000000000002    40.23936078966238        39.63498891904659
0.0017258333333333333    43.45840373173187        42.75174555480962
