% Model:              WindingSectionV2_Paper_P1_BiPolar.mph
% Version:            COMSOL 5.2.1.262
% Date:               May 18 2017, 14:32
% Table:              Table 1 - Global Evaluation 1 (mf.Forcez_MagneticMoverForce, fsens(Offset_Mover))
% offset (m)             Electromagnetic force, z component (N)fsens(Offset_Mover)
-9.083333333333333E-4    41.0543497560068         41.34486005567975
-8.174999999999999E-4    45.33541071631162        44.78460899287622
-7.266666666666666E-4    48.42115544507588        48.071930814399686
-6.358333333333333E-4    51.10046621716038        51.05435918067235
-5.449999999999999E-4    54.142770578356206       53.65088587917067
-4.541666666666666E-4    56.49440988617172        55.98585044201096
-3.6333333333333324E-4   58.518137034762624       57.511927354519
-2.7249999999999996E-4   57.271562146087355       57.43410880072123
-1.8166666666666656E-4   56.953727775366296       56.37125442661033
-9.083333333333317E-5    54.88620347052035        54.11104168972535
0                        0.25699893965159293      0.11369521891845924
9.083333333333334E-5     3.9012816057112265       4.516049933015528
1.8166666666666667E-4    8.080142315355598        8.873171528657535
2.725E-4                 12.18499214989348        13.358261611003176
3.6333333333333335E-4    16.432100368862056       17.713692390344022
4.541666666666667E-4     19.719191526295404       22.046872191259766
5.45E-4                  24.782780379176025       26.314017887648117
6.358333333333333E-4     29.781461297441513       30.479549967860525
7.266666666666667E-4     32.851037909667255       34.43751447087077
8.175000000000001E-4     37.81271215361158        38.1513865777581
9.083333333333334E-4     40.87158388922789        41.855351137931834
