% Model:              WindingSectionV2_Paper_P1.mph
% Version:            COMSOL 5.2.1.262
% Date:               Mar 10 2017, 11:58
% Table:              Table 2 - Global Evaluation 1 (mf.Forcez_MagneticMoverForce, fsens(Offset_Mover))
% offset (m)             Electromagnetic force, z component (N)fsens(Offset_Mover)
-9.083333333333333E-4    38.639768252456726       38.55169723265161
-8.174999999999999E-4    41.58838172949394        40.73178128272181
-7.266666666666666E-4    43.37740396838257        42.720412106727146
-6.358333333333333E-4    44.7253491195968         44.396985256781875
-5.449999999999999E-4    46.234276667438785       45.51493505404547
-4.541666666666666E-4    47.0319113076995         46.13308429043678
-3.6333333333333324E-4   47.14322839850776        45.83373352222247
-2.7249999999999996E-4   44.44521237857602        44.47440818096968
-1.8166666666666656E-4   42.73239850480682        41.99878913922964
-9.083333333333317E-5    40.12870963092318        39.19247464955926
1.0842021724855044E-19   36.51270853700227        35.9706899148547
9.083333333333339E-5     32.48105662946083        33.097292615372204
1.8166666666666678E-4    30.139148214449225       30.979473455585435
2.7250000000000017E-4    28.891401162937637       29.81275273284562
3.6333333333333335E-4    28.555469074565604       29.601038960402175
4.5416666666666674E-4    28.160608552523037       30.17601617326052
5.450000000000001E-4     29.97985939337644        31.24271245948576
6.358333333333335E-4     32.12336072550054        32.6887815302568
7.266666666666669E-4     33.226272172078566       34.52303331553578
8.175000000000001E-4     36.57741721392849        36.5735199907112
9.083333333333335E-4     38.403469420519215       38.7649680485133
