% Model:              WindingSectionV2_Paper_P1_UniPolar.mph
% Version:            COMSOL 5.2.1.262
% Date:               May 17 2017, 15:52
% Table:              Table 1 - Global Evaluation 1 (mf.Forcez_MagneticMoverForce, fsens(Offset_Mover))
% offset (m)             Electromagnetic force, z component (N)fsens(Offset_Mover)
-9.083333333333333E-4    36.86282373063086        36.24337608561664
-8.174999999999999E-4    34.688235277197926       33.97414220617354
-7.266666666666666E-4    31.696621948279713       31.59562778129966
-6.358333333333333E-4    29.22232522653249        28.999588973415136
-5.449999999999999E-4    26.41523169957923        26.12628914552031
-4.541666666666666E-4    23.008592500499898       22.9813423370415
-3.6333333333333324E-4   20.079567122337174       19.45893907941158
-2.7249999999999996E-4   15.153606165687922       15.350077980180988
-1.8166666666666656E-4   10.741344207200406       10.653190371948767
-9.083333333333317E-5    5.919047794083782        5.526143924515975
-1E-5                    0.435                    0.607
0                        46.136901926063295       45.28153259986811
9.083333333333334E-5     47.12082803999417        46.74193892372685
1.8166666666666667E-4    47.40197671437735        47.38657175570561
2.725E-4                 47.40152372039957        47.328926312527386
3.6333333333333335E-4    46.40938835717562        46.639995886972756
4.541666666666667E-4     44.903108420490476       45.525421148335624
5.45E-4                  43.78075700121339        44.089238595042715
6.358333333333333E-4     42.28076985587949        42.43137550919948
7.266666666666667E-4     40.62447911323077        40.5774077016726
8.175000000000001E-4     38.67175238001662        38.56110941503828
9.083333333333334E-4     36.67782377717252        36.50770249222972